|===============================================================================
|
|  DFTB+ development version (commit: )
|
|  Copyright (C) 2006 - 2021  DFTB+ developers group
|
|===============================================================================
|
|  When publishing results obtained with DFTB+, please cite the following
|  reference:
|
|  * DFTB+, a software package for efficient approximate density functional
|    theory based atomistic simulations, J. Chem. Phys. 152, 124101 (2020).
|    [doi: 10.1063/1.5143190]
|
|  You should also cite additional publications crediting the parametrization
|  data you use. Please consult the documentation of the SK-files for the
|  references.
|
|===============================================================================

Reading input file 'dftb_in.hsd'
Parser version: 10

--------------------------------------------------------------------------------
***  Converting input from parser version  7 to parser version 10 ...
***  Done.

Reading SK-files:
slakos/mio-ext/O-O.skf
slakos/mio-ext/O-H.skf
slakos/mio-ext/H-H.skf
Done.
WARNING!
-> This driver is deprecated and will be removed in future versions.
Please use the GeometryOptimization driver instead.
Path: dftbplusinput/Driver/ConjugateGradient
Line: 10-15 (File: dftb_in.hsd)



Processed input in HSD format written to 'dftb_pin.hsd'

Starting initialization...
--------------------------------------------------------------------------------
OpenMP threads:              4
Chosen random seed:          1743836904
Mode:                        Conjugate gradient relaxation
Self consistent charges:     Yes
SCC-tolerance:                 0.100000E-04
Max. scc iterations:                    100
Shell resolved Hubbard:      No
Spin polarisation:           No
Nr. of up electrons:             4.000000
Nr. of down electrons:           4.000000
Periodic boundaries:         No
Electronic solver:           Relatively robust
Mixer:                       Broyden mixer
Mixing parameter:                  0.200000
Maximal SCC-cycles:                     100
Nr. of chrg. vec. in memory:            100
Nr. of moved atoms:                       3
Max. nr. of geometry steps:             100
Force tolerance:               0.100000E-03
Electronic temperature:        0.100000E-07 H      0.272114E-06 eV
Initial charges:             Set automatically (system chrg:   0.000E+00)
Included shells:             O:  s, p
                             H:  s
Extra options:
                             Mulliken analysis
Force type                   original

--------------------------------------------------------------------------------

***  Geometry step: 0

 iSCC Total electronic   Diff electronic      SCC error    
    1    0.00000000E+00    0.00000000E+00    0.88081627E+00
    2   -0.39511797E+01   -0.39511797E+01    0.55742893E+00
    3   -0.39705438E+01   -0.19364070E-01    0.32497352E-01
    4   -0.39841371E+01   -0.13593374E-01    0.19288772E-02
    5   -0.39841854E+01   -0.48242063E-04    0.87062163E-05

Total Energy:                       -3.9798793068 H         -108.2980 eV
Extrapolated to 0K:                 -3.9798793068 H         -108.2980 eV
Total Mermin free energy:           -3.9798793068 H         -108.2980 eV
Force related energy:               -3.9798793068 H         -108.2980 eV

Maximal force component:             0.187090E+00
Averaged force norm:                 0.136057E+00
>> Charges saved for restart in charges.bin

--------------------------------------------------------------------------------

***  Geometry step: 1

 iSCC Total electronic   Diff electronic      SCC error    
    1   -0.39841856E+01    0.00000000E+00    0.92334735E-01
    2   -0.40495559E+01   -0.65370346E-01    0.62663475E-01
    3   -0.40496864E+01   -0.13047650E-03    0.14733596E-03
    4   -0.40497981E+01   -0.11175584E-03    0.23685171E-06

Total Energy:                       -4.0356086835 H         -109.8145 eV
Extrapolated to 0K:                 -4.0356086835 H         -109.8145 eV
Total Mermin free energy:           -4.0356086835 H         -109.8145 eV
Force related energy:               -4.0356086835 H         -109.8145 eV

Maximal force component:             0.155464E+00
Averaged force norm:                 0.113953E+00
>> Charges saved for restart in charges.bin

--------------------------------------------------------------------------------

***  Geometry step: 2

 iSCC Total electronic   Diff electronic      SCC error    
    1   -0.40497981E+01    0.00000000E+00    0.66022306E-01
    2   -0.41237259E+01   -0.73927754E-01    0.47961620E-01
    3   -0.41237588E+01   -0.32908545E-04    0.33857732E-04
    4   -0.41237956E+01   -0.36832271E-04    0.18953797E-07

Total Energy:                       -4.0723902664 H         -110.8154 eV
Extrapolated to 0K:                 -4.0723902664 H         -110.8154 eV
Total Mermin free energy:           -4.0723902664 H         -110.8154 eV
Force related energy:               -4.0723902664 H         -110.8154 eV

Maximal force component:             0.625553E-01
Averaged force norm:                 0.448605E-01
>> Charges saved for restart in charges.bin

--------------------------------------------------------------------------------

***  Geometry step: 3

 iSCC Total electronic   Diff electronic      SCC error    
    1   -0.41237956E+01    0.00000000E+00    0.42648549E-01
    2   -0.42042305E+01   -0.80434863E-01    0.32223422E-01
    3   -0.42042369E+01   -0.64306427E-05    0.38917836E-05

Total Energy:                       -4.0641780684 H         -110.5919 eV
Extrapolated to 0K:                 -4.0641780684 H         -110.5919 eV
Total Mermin free energy:           -4.0641780684 H         -110.5919 eV
Force related energy:               -4.0641780684 H         -110.5919 eV

Maximal force component:             0.115631E+00
Averaged force norm:                 0.106209E+00
>> Charges saved for restart in charges.bin

--------------------------------------------------------------------------------

***  Geometry step: 4

 iSCC Total electronic   Diff electronic      SCC error    
    1   -0.42042455E+01    0.00000000E+00    0.29440437E-01
    2   -0.41490207E+01    0.55224751E-01    0.21699248E-01
    3   -0.41490259E+01   -0.51867522E-05    0.71231707E-05

Total Energy:                       -4.0761975610 H         -110.9190 eV
Extrapolated to 0K:                 -4.0761975610 H         -110.9190 eV
Total Mermin free energy:           -4.0761975610 H         -110.9190 eV
Force related energy:               -4.0761975610 H         -110.9190 eV

Maximal force component:             0.153569E-01
Averaged force norm:                 0.139346E-01
>> Charges saved for restart in charges.bin

--------------------------------------------------------------------------------

***  Geometry step: 5

 iSCC Total electronic   Diff electronic      SCC error    
    1   -0.41490321E+01    0.00000000E+00    0.17127319E-01
    2   -0.41244587E+01    0.24573351E-01    0.12584605E-01
    3   -0.41244606E+01   -0.18137602E-05    0.11693661E-05

Total Energy:                       -4.0743672157 H         -110.8692 eV
Extrapolated to 0K:                 -4.0743672157 H         -110.8692 eV
Total Mermin free energy:           -4.0743672157 H         -110.8692 eV
Force related energy:               -4.0743672157 H         -110.8692 eV

Maximal force component:             0.336089E-01
Averaged force norm:                 0.335367E-01
>> Charges saved for restart in charges.bin

--------------------------------------------------------------------------------

***  Geometry step: 6

 iSCC Total electronic   Diff electronic      SCC error    
    1   -0.41244627E+01    0.00000000E+00    0.12690850E-01
    2   -0.41414806E+01   -0.17017955E-01    0.93483401E-02
    3   -0.41414816E+01   -0.96478819E-06    0.17373439E-05

Total Energy:                       -4.0774103506 H         -110.9520 eV
Extrapolated to 0K:                 -4.0774103506 H         -110.9520 eV
Total Mermin free energy:           -4.0774103506 H         -110.9520 eV
Force related energy:               -4.0774103506 H         -110.9520 eV

Maximal force component:             0.207962E-01
Averaged force norm:                 0.158038E-01
>> Charges saved for restart in charges.bin

--------------------------------------------------------------------------------

***  Geometry step: 7

 iSCC Total electronic   Diff electronic      SCC error    
    1   -0.41414827E+01    0.00000000E+00    0.24467217E-01
    2   -0.41678448E+01   -0.26362068E-01    0.18306617E-01
    3   -0.41678475E+01   -0.26447173E-05    0.14418192E-05

Total Energy:                       -4.0762499000 H         -110.9204 eV
Extrapolated to 0K:                 -4.0762499000 H         -110.9204 eV
Total Mermin free energy:           -4.0762499000 H         -110.9204 eV
Force related energy:               -4.0762499000 H         -110.9204 eV

Maximal force component:             0.385874E-01
Averaged force norm:                 0.317552E-01
>> Charges saved for restart in charges.bin

--------------------------------------------------------------------------------

***  Geometry step: 8

 iSCC Total electronic   Diff electronic      SCC error    
    1   -0.41678508E+01    0.00000000E+00    0.16230411E-01
    2   -0.41511377E+01    0.16713139E-01    0.12026980E-01
    3   -0.41511391E+01   -0.14164240E-05    0.24126795E-05

Total Energy:                       -4.0779288544 H         -110.9661 eV
Extrapolated to 0K:                 -4.0779288544 H         -110.9661 eV
Total Mermin free energy:           -4.0779288544 H         -110.9661 eV
Force related energy:               -4.0779288544 H         -110.9661 eV

Maximal force component:             0.130184E-02
Averaged force norm:                 0.106365E-02
>> Charges saved for restart in charges.bin

--------------------------------------------------------------------------------

***  Geometry step: 9

 iSCC Total electronic   Diff electronic      SCC error    
    1   -0.41511408E+01    0.00000000E+00    0.33966613E-02
    2   -0.41480729E+01    0.30678938E-02    0.25170430E-02
    3   -0.41480730E+01   -0.61866023E-07    0.49768045E-07

Total Energy:                       -4.0778570827 H         -110.9641 eV
Extrapolated to 0K:                 -4.0778570827 H         -110.9641 eV
Total Mermin free energy:           -4.0778570827 H         -110.9641 eV
Force related energy:               -4.0778570827 H         -110.9641 eV

Maximal force component:             0.455194E-02
Averaged force norm:                 0.384901E-02
>> Charges saved for restart in charges.bin

--------------------------------------------------------------------------------

***  Geometry step: 10

 iSCC Total electronic   Diff electronic      SCC error    
    1   -0.41480731E+01    0.00000000E+00    0.25903034E-02
    2   -0.41504119E+01   -0.23388621E-02    0.19195647E-02
    3   -0.41504120E+01   -0.36027256E-07    0.46809001E-07

Total Energy:                       -4.0779377521 H         -110.9663 eV
Extrapolated to 0K:                 -4.0779377521 H         -110.9663 eV
Total Mermin free energy:           -4.0779377521 H         -110.9663 eV
Force related energy:               -4.0779377521 H         -110.9663 eV

Maximal force component:             0.390984E-03
Averaged force norm:                 0.304167E-03
>> Charges saved for restart in charges.bin

--------------------------------------------------------------------------------

***  Geometry step: 11

 iSCC Total electronic   Diff electronic      SCC error    
    1   -0.41504120E+01    0.00000000E+00    0.21866800E-02
    2   -0.41524339E+01   -0.20218575E-02    0.16225644E-02
    3   -0.41524339E+01   -0.25044371E-07    0.22297624E-07

Total Energy:                       -4.0779158946 H         -110.9657 eV
Extrapolated to 0K:                 -4.0779158946 H         -110.9657 eV
Total Mermin free energy:           -4.0779158946 H         -110.9657 eV
Force related energy:               -4.0779158946 H         -110.9657 eV

Maximal force component:             0.429654E-02
Averaged force norm:                 0.334026E-02
>> Charges saved for restart in charges.bin

--------------------------------------------------------------------------------

***  Geometry step: 12

 iSCC Total electronic   Diff electronic      SCC error    
    1   -0.41524339E+01    0.00000000E+00    0.20115717E-02
    2   -0.41505816E+01    0.18523632E-02    0.14908557E-02
    3   -0.41505816E+01   -0.21681793E-07    0.27122334E-07

Total Energy:                       -4.0779379339 H         -110.9663 eV
Extrapolated to 0K:                 -4.0779379339 H         -110.9663 eV
Total Mermin free energy:           -4.0779379339 H         -110.9663 eV
Force related energy:               -4.0779379339 H         -110.9663 eV

Maximal force component:             0.280551E-05
Averaged force norm:                 0.229120E-05
>> Charges saved for restart in charges.bin

Geometry converged

--------------------------------------------------------------------------------
DFTB+ running times                          cpu [s]             wall clock [s]
--------------------------------------------------------------------------------
Global initialisation                  +       0.01 (  2.1%)       0.02 ( 16.1%)
Pre-SCC initialisation                 +       0.01 (  3.5%)       0.00 (  3.2%)
SCC                                    +       0.24 ( 73.9%)       0.08 ( 62.1%)
Post-SCC processing                    +       0.06 ( 20.0%)       0.02 ( 16.1%)
--------------------------------------------------------------------------------
Missing                                +       0.00 (  0.5%)       0.00 (  2.4%)
Total                                  =       0.32 (100.0%)       0.12 (100.0%)
--------------------------------------------------------------------------------
