 Fermi distribution function

Geometry optimization step: 12


********************************************************************************
 iSCC Total electronic   Diff electronic      SCC error    
    3   -0.41505816E+01   -0.21681793E-07    0.27122334E-07
********************************************************************************

Coordinates of moved atoms (au):
    1      0.00000000     -1.35303527     -0.00000000
    2      0.00000000     -0.26834536      1.47115110
    3     -0.00000000     -0.26834536     -1.47115110

 Total charge:    -0.00000000

 Atomic gross charges (e)
 Atom           Charge
    1      -0.59261515
    2       0.29630757
    3       0.29630757

Nr. of electrons (up):      8.00000000
Atom populations (up)
 Atom       Population
    1       6.59261515
    2       0.70369243
    3       0.70369243

l-shell populations (up)
 Atom Sh.   l       Population
    1   1   0       1.73421713
    1   2   1       4.85839802
    2   1   0       0.70369243
    3   1   0       0.70369243

Orbital populations (up)
 Atom Sh.   l   m       Population  Label
    1   1   0   0       1.73421713  s
    1   2   1  -1       1.68107958  p_y
    1   2   1   0       1.17731844  p_z
    1   2   1   1       2.00000000  p_x
    2   1   0   0       0.70369243  s
    3   1   0   0       0.70369243  s

Fermi level:                         0.0700447751 H            1.9060 eV
Band energy:                        -3.6725069692 H          -99.9340 eV
TS:                                  0.0000000000 H            0.0000 eV
Band free energy (E-TS):            -3.6725069692 H          -99.9340 eV
Extrapolated E(0K):                 -3.6725069692 H          -99.9340 eV
Input / Output electrons (q):      8.0000000000      8.0000000000

Energy H0:                          -4.1689433198 H         -113.4427 eV
Energy SCC:                          0.0183617102 H            0.4996 eV
Total Electronic energy:            -4.1505816095 H         -112.9431 eV
Repulsive energy:                    0.0726436756 H            1.9767 eV
Total energy:                       -4.0779379339 H         -110.9663 eV
Extrapolated to 0:                  -4.0779379339 H         -110.9663 eV
Total Mermin free energy:           -4.0779379339 H         -110.9663 eV
Force related energy:               -4.0779379339 H         -110.9663 eV

SCC converged

Full geometry written in geom.out.{xyz|gen}

Total Forces
    1      0.000000000000      0.000000068304      0.000000000002
    2      0.000000000000     -0.000000034153     -0.000002805512
    3     -0.000000000000     -0.000000034151      0.000002805510

Maximal derivative component:        0.280551E-05 au
Max force for moved atoms::          0.280551E-05 au

Dipole moment:   -0.00000000    0.64280367    0.00000000 au
Dipole moment:   -0.00000000    1.63384410    0.00000000 Debye

Geometry converged

