    3
Geometry Step: 12
    O      0.00000000     -0.71599548     -0.00000000      6.59261515
    H      0.00000000     -0.14200226      0.77849969      0.70369243
    H     -0.00000000     -0.14200226     -0.77849969      0.70369243
